# vtk DataFile Version 2.0 
output from GascoigneStd, 
ASCII
DATASET UNSTRUCTURED_GRID
FIELD FieldData 1
TIME 1 1 double
0
POINTS 4128 DOUBLE 
0.15 0.2  0
0.164645 0.235355  0
0.2 0.25  0
0.235355 0.235355  0
0.234781 0.164079  0
0.2 0.15  0
0.165017 0.164277  0
0.1 0.19909  0
0.12928 0.26947  0
0.2 0.29863  0
0.27071 0.26947  0
0.27071 0.12869  0
0.2 0.09954  0
0.12928 0.12869  0
0 0  0
0.12936 0  0
0.2002 0  0
0.2684 0  0
2.5 0  0
1.85 0  0
2.5 0.12048  0
2.5 0.27866  0
1.85 0.41  0
0.26839 0.41  0
0.2002 0.41  0
0.12935 0.41  0
0 0.41  0
0 0.26937  0
0 0.19996  0
0 0.12854  0
2.5 0.41  0
0.35 0.26  0
0.35 0.14  0
0.34979 0.41  0
0.3509 0  0
0.45 0.14  0
0.45 0.26  0
0.65 0.19  0
0.7 0.14  0
0.4488 0  0
0.7502 0  0
0.913 0  0
0.9 0.13438  0
1.1902 0  0
1.5 0.41  0
1.18 0.12  0
1.5 0  0
1.5 0.12  0
1.85 0.12  0
0.65 0.21  0
0.7 0.26  0
0.9 0.26379  0
1.18 0.28  0
1.5 0.28  0
1.85 0.28  0
1.1902 0.41  0
0.913 0.41  0
0.7502 0.41  0
0.44879 0.41  0
0.2 0.26877  0
0.15 0.24886  0
0.25 0.24886  0
0.25 0.14931  0
0.2 0.1294  0
0.15 0.14931  0
0.13 0.19909  0
0.24899 0.21  0
0.24899 0.19  0
0.27 0.21  0
0.27 0.19  0
0.3 0.21  0
0.3 0.19  0
0.35 0.19  0
0.35 0.21  0
0.45 0.21  0
0.45 0.19  0
0.6 0.21  0
0.6 0.19  0
0.6 0.41  0
0.6 0  0
0.6 0.14  0
0.6 0.26  0
0.06466 0.0643075  0
0.0646575 0.33971  0
0.05732 0.16407  0
0.05732 0.234473  0
0.164707 0.347025  0
0.16471 0.0570575  0
0.234825 0.347025  0
0.234828 0.0570575  0
0.12732 0.169045  0
0.12732 0.229127  0
0.16982 0.271432  0
0.230177 0.271433  0
0.16982 0.126735  0
0.230178 0.126735  0
0.146953 0.177412  0
0.146903 0.221555  0
0.177933 0.252504  0
0.222067 0.252504  0
0.178054 0.146531  0
0.221881 0.146504  0
0.251922 0.17281  0
0.252018 0.226555  0
0.272678 0.234582  0
0.272678 0.1645  0
0.310002 0.0671725  0
0.317678 0.162172  0
0.317677 0.237367  0
0.309723 0.337367  0
0.399645 0.335  0
0.4 0.235  0
0.399925 0.07  0
0.4 0.165  0
0.5247 0.07  0
0.525 0.165  0
0.524698 0.335  0
0.525 0.235  0
0.26 0.2  0
0.285 0.2  0
0.325 0.2  0
0.4 0.2  0
0.525 0.2  0
0.66255 0.07  0
0.6375 0.165  0
0.625 0.2  0
0.6375 0.235  0
0.66255 0.335  0
0.675 0.2  0
0.8158 0.068595  0
0.8 0.199543  0
0.8158 0.335947  0
1.0458 0.063595  0
1.04 0.199543  0
1.0458 0.340947  0
1.34255 0.06  0
1.34 0.2  0
1.34255 0.345  0
1.675 0.06  0
1.675 0.2  0
1.675 0.345  0
2.175 0.06012  0
2.175 0.199785  0
2.175 0.344665  0
0.153806 0.219134  0
0.180866 0.246194  0
0.219134 0.246194  0
0.153907 0.180624  0
0.218761 0.153653  0
0.181108 0.153707  0
0.11464 0.23428  0
0.16464 0.28405  0
0.235355 0.28405  0
0.11464 0.16389  0
0.235355 0.114115  0
0.16464 0.114115  0
0.2001 0.04977  0
0.12932 0.064345  0
0.269555 0.064345  0
0.06468 0  0
0.16478 0  0
0.2343 0  0
0.26955 0.339735  0
0.2001 0.354315  0
0.129315 0.339735  0
0.06464 0.26942  0
0.05 0.199525  0
2.175 0  0
2.5 0.06024  0
0.310355 0.264735  0
2.5 0.19957  0
0.06464 0.128615  0
0.310355 0.134345  0
0 0.06427  0
0.234295 0.41  0
0.164775 0.41  0
0.30965 0  0
0.064675 0.41  0
2.5 0.34433  0
2.175 0.41  0
0 0.339685  0
0 0.234665  0
0.30909 0.41  0
0 0.16425  0
0.157322 0.242108  0
0.2 0.259385  0
0.349895 0.335  0
0.242678 0.242108  0
0.14 0.199545  0
1.675 0  0
0.35045 0.07  0
0.24239 0.156695  0
1.675 0.41  0
0.4 0.14  0
0.4 0.26  0
1.85 0.06  0
0.2 0.1397  0
0.13964 0.259165  0
0.2 0.2837  0
2.175 0.12024  0
0.244037 0.22368  0
0.157508 0.156793  0
0.243845 0.175966  0
0.260355 0.259165  0
0.115 0.19909  0
0.39985 0  0
0.260355 0.139  0
0.4494 0.07  0
0.2 0.11447  0
0.675 0.165  0
2.175 0.27933  0
1.85 0.345  0
0.13964 0.139  0
0.7251 0.07  0
0.285355 0.239735  0
0.8 0.13719  0
0.8316 0  0
0.285355 0.159345  0
0.9065 0.06719  0
1.0516 0  0
0.65 0.2  0
1.04 0.12719  0
0.7 0.2  0
1.1851 0.06  0
1.3451 0  0
0.39929 0.41  0
1.34 0.12  0
0.9 0.199085  0
1.5 0.06  0
0.449395 0.335  0
1.675 0.12  0
1.18 0.2  0
1.5 0.345  0
0.675 0.235  0
1.3451 0.41  0
1.5 0.2  0
0.8 0.261895  0
1.85 0.2  0
1.04 0.271895  0
0.35 0.235  0
0.35 0.165  0
1.34 0.28  0
0.7251 0.335  0
0.9065 0.336895  0
1.1851 0.345  0
1.675 0.28  0
0.45 0.165  0
0.45 0.235  0
1.0516 0.41  0
0.8316 0.41  0
0.625 0.19  0
0.525 0.14  0
0.525 0.26  0
0.5244 0  0
0.65 0.14  0
0.175 0.258815  0
0.6751 0  0
0.225 0.258815  0
0.14 0.223975  0
0.225 0.139355  0
0.625 0.21  0
0.175 0.139355  0
0.26 0.22943  0
0.14 0.1742  0
0.26 0.169655  0
0.65 0.26  0
0.25 0.2  0
0.259495 0.21  0
0.6751 0.41  0
0.524395 0.41  0
0.259495 0.19  0
0.27 0.2  0
0.285 0.21  0
0.285 0.19  0
0.3 0.2  0
0.325 0.21  0
0.325 0.19  0
0.35 0.2  0
0.4 0.19  0
0.4 0.21  0
0.45 0.2  0
0.525 0.21  0
0.525 0.19  0
0.6 0.2  0
0.6 0.235  0
0.6 0.165  0
0.6 0.335  0
0.6 0.07  0
0.032335 0.0321444  0
0.097005 0.0321631  0
0.096975 0.0964894  0
0.032325 0.0964331  0
0.0323331 0.374849  0
0.0323244 0.304546  0
0.0969731 0.304584  0
0.0969994 0.374861  0
0.03049 0.146369  0
0.09147 0.146316  0
0.08049 0.181644  0
0.02683 0.181951  0
0.02683 0.217156  0
0.08049 0.216842  0
0.09147 0.251911  0
0.03049 0.251982  0
0.146986 0.31007  0
0.182362 0.321005  0
0.182446 0.380335  0
0.147037 0.37669  0
0.147042 0.0303506  0
0.182448 0.0267069  0
0.182363 0.0801206  0
0.146987 0.0910519  0
0.21757 0.321005  0
0.25261 0.31007  0
0.251765 0.37669  0
0.217355 0.380335  0
0.217357 0.0267069  0
0.251771 0.0303506  0
0.252612 0.0910519  0
0.217571 0.0801206  0
0.12772 0.150156  0
0.13924 0.157889  0
0.12808 0.185356  0
0.11424 0.182779  0
0.11424 0.215397  0
0.12808 0.212821  0
0.13924 0.240282  0
0.12772 0.248011  0
0.158615 0.259568  0
0.186205 0.270679  0
0.183615 0.284453  0
0.150845 0.271029  0
0.213794 0.270679  0
0.241383 0.259568  0
0.249149 0.271029  0
0.216383 0.284453  0
0.150845 0.127135  0
0.183615 0.113715  0
0.186205 0.12749  0
0.158615 0.1386  0
0.213794 0.12749  0
0.216383 0.113715  0
0.249149 0.127135  0
0.241383 0.1386  0
0.148615 0.164429  0
0.155438 0.169499  0
0.147232 0.189298  0
0.139238 0.187562  0
0.139226 0.211041  0
0.147206 0.210152  0
0.15527 0.229805  0
0.148556 0.234124  0
0.169925 0.24444  0
0.189606 0.252492  0
0.188233 0.259869  0
0.165064 0.250572  0
0.210394 0.252492  0
0.230075 0.24444  0
0.234936 0.250572  0
0.211767 0.259869  0
0.170165 0.154936  0
0.165141 0.147997  0
0.188263 0.138746  0
0.1897 0.147025  0
0.210249 0.147012  0
0.21172 0.13874  0
0.234818 0.147966  0
0.229705 0.154847  0
0.251327 0.182097  0
0.243458 0.167217  0
0.251078 0.162117  0
0.260354 0.180616  0
0.243736 0.232083  0
0.251385 0.217649  0
0.260378 0.218996  0
0.251174 0.236738  0
0.271919 0.221003  0
0.285758 0.223579  0
0.272274 0.250738  0
0.260758 0.243009  0
0.271919 0.178539  0
0.260758 0.155616  0
0.272274 0.147884  0
0.285758 0.175961  0
0.289402 0.0328794  0
0.330251 0.0342931  0
0.330202 0.102879  0
0.290156 0.0986381  0
0.296024 0.146138  0
0.332008 0.150379  0
0.335669 0.176793  0
0.307008 0.175379  0
0.307008 0.224276  0
0.335669 0.223092  0
0.332008 0.249276  0
0.296024 0.252827  0
0.290084 0.302827  0
0.329993 0.299276  0
0.329624 0.373092  0
0.289188 0.374276  0
0.374885 0.2975  0
0.42476 0.2975  0
0.42428 0.3725  0
0.374655 0.3725  0
0.375 0.2225  0
0.425 0.2225  0
0.425 0.2475  0
0.375 0.2475  0
0.375281 0.035  0
0.424494 0.035  0
0.424831 0.105  0
0.375094 0.105  0
0.375 0.1525  0
0.425 0.1525  0
0.425 0.1775  0
0.375 0.1775  0
0.486825 0.035  0
0.562275 0.035  0
0.562425 0.105  0
0.487275 0.105  0
0.4875 0.1525  0
0.5625 0.1525  0
0.5625 0.1775  0
0.4875 0.1775  0
0.487273 0.2975  0
0.562424 0.2975  0
0.562273 0.3725  0
0.486819 0.3725  0
0.4875 0.2225  0
0.5625 0.2225  0
0.5625 0.2475  0
0.4875 0.2475  0
0.254747 0.194987  0
0.264874 0.195  0
0.264874 0.205  0
0.254747 0.205013  0
0.2775 0.195  0
0.2925 0.195  0
0.2925 0.205  0
0.2775 0.205  0
0.3125 0.195  0
0.3375 0.195  0
0.3375 0.205  0
0.3125 0.205  0
0.375 0.195  0
0.425 0.195  0
0.425 0.205  0
0.375 0.205  0
0.4875 0.195  0
0.5625 0.195  0
0.5625 0.205  0
0.4875 0.205  0
0.634413 0.035  0
0.703237 0.035  0
0.684412 0.105  0
0.628138 0.105  0
0.621875 0.1525  0
0.665625 0.1525  0
0.646875 0.1775  0
0.615625 0.1775  0
0.6125 0.195  0
0.6375 0.195  0
0.6375 0.205  0
0.6125 0.205  0
0.615625 0.2225  0
0.646875 0.2225  0
0.665625 0.2475  0
0.621875 0.2475  0
0.628138 0.2975  0
0.684412 0.2975  0
0.703237 0.3725  0
0.634413 0.3725  0
0.6625 0.18875  0
0.6875 0.17625  0
0.6875 0.22375  0
0.6625 0.21125  0
0.780675 0.0346488  0
0.866725 0.0339462  0
0.855575 0.101839  0
0.760225 0.103946  0
0.75 0.169183  0
0.85 0.167549  0
0.85 0.231078  0
0.75 0.230359  0
0.760225 0.298211  0
0.855575 0.299632  0
0.866725 0.373211  0
0.780675 0.372737  0
0.979225 0.0326962  0
1.11817 0.0308987  0
1.11272 0.0926963  0
0.973075 0.0980887  0
0.97 0.165049  0
1.11 0.161683  0
1.11 0.237859  0
0.97 0.233578  0
0.973075 0.303382  0
1.11272 0.309461  0
1.11817 0.376487  0
0.979225 0.374461  0
1.26574 0.03  0
1.42191 0.03  0
1.42064 0.09  0
1.26191 0.09  0
1.26 0.16  0
1.42 0.16  0
1.42 0.24  0
1.26 0.24  0
1.26191 0.3125  0
1.42064 0.3125  0
1.42191 0.3775  0
1.26574 0.3775  0
1.5875 0.03  0
1.7625 0.03  0
1.7625 0.09  0
1.5875 0.09  0
1.5875 0.16  0
1.7625 0.16  0
1.7625 0.24  0
1.5875 0.24  0
1.5875 0.3125  0
1.7625 0.3125  0
1.7625 0.3775  0
1.5875 0.3775  0
2.3375 0.03009  0
2.3375 0.09027  0
2.0125 0.09009  0
2.0125 0.03003  0
2.0125 0.160006  0
2.3375 0.160019  0
2.3375 0.239336  0
2.0125 0.239779  0
2.3375 0.377249  0
2.0125 0.377416  0
2.0125 0.312249  0
2.3375 0.311746  0
0.150961 0.209755  0
0.158427 0.227779  0
0.172221 0.241573  0
0.150986 0.190117  0
0.190245 0.249039  0
0.209755 0.249039  0
0.227779 0.241573  0
0.227274 0.158094  0
0.158646 0.171896  0
0.209557 0.150922  0
0.190374 0.150935  0
0.172549 0.15821  0
0.10732 0.216685  0
0.12196 0.251875  0
0.14696 0.27676  0
0.10732 0.18149  0
0.18232 0.29134  0
0.217678 0.29134  0
0.253032 0.27676  0
0.253032 0.121402  0
0.217678 0.106827  0
0.12196 0.14629  0
0.18232 0.106827  0
0.14696 0.121402  0
0.20005 0.074655  0
0.270132 0.0965175  0
0.1293 0.0965175  0
0.27013 0.304602  0
0.20015 0.024885  0
0.129298 0.304602  0
[...]
POINT_DATA 4128
SCALARS u000 DOUBLE 
LOOKUP_TABLE default
2.50656
2.33622
1.92803
1.48976
1.49135
1.9204
2.32644
2.65034
2.42975
1.93683
1.42829
1.42575
1.92836
2.41949
2.79496
2.32125
1.93781
1.57898
2.27991e-06
0.230774
7.63741e-08
1.06649e-07
0.230776
1.59864
1.94972
2.32555
2.79603
3.17372
3.24938
3.14575
2.83728e-06
1.07812
1.07192
1.24894
1.22208
0.818144
0.823742
0.62927
0.63211
0.93447
0.624004
0.563207
0.567589
0.464929
0.355034
0.468592
0.355021
0.355026
0.230774
0.629756
0.634345
0.56823
0.468684
0.355033
0.230775
0.465071
0.564515
0.628604
0.954864
1.93
2.36109
1.47015
1.47156
1.9224
2.34957
2.53691
1.27366
1.27018
1.20182
1.19978
1.09524
1.09413
0.939252
0.940282
0.721424
0.72051
0.596656
0.596069
0.722287
0.710309
0.655884
0.659512
2.67058
2.67812
2.85083
2.85864
2.14842
2.14072
1.75062
1.73611
2.50938
2.51648
2.17259
1.68531
2.16198
1.68153
2.46153
2.46823
2.15337
1.69613
2.14221
1.69394
1.34474
1.34555
1.2949
1.29403
1.35156
1.12422
1.12684
1.3717
1.04949
0.879059
1.03013
0.875613
0.775442
0.671915
0.78927
0.674636
0
0
0
0
0
0.659545
0.634603
0.61887
0.636394
0.666502
0.630133
0.597837
0.601504
0.600169
0.516125
0.51833
0.516525
0.410908
0.411833
0.410947
0.2929
0.292902
0.292903
0.11539
0.115391
0.115392
2.46292
2.14918
1.69987
2.45863
1.69698
2.13942
2.56292
2.18921
1.67691
2.55596
1.67161
2.17913
1.93585
2.34326
1.5449
2.62785
2.13066
1.75483
1.562
1.94699
2.34888
2.77987
2.91368
0.115391
-5.46646e-08
1.23365
7.34439e-08
2.7661
1.22912
2.9443
1.77102
2.13828
1.38691
2.62939
4.51678e-08
0.115394
2.96449
3.23257
1.41135
3.21921
2.34421
1.92855
1.21007
1.48243
2.51439
0.2929
1.1886
1.48434
0.292904
0.928216
0.934195
0.230774
1.92093
2.39218
1.93323
0.11539
1.35821
2.33299
1.35651
1.4508
2.58742
1.06108
1.4501
0.906724
1.92528
0.633161
0.115391
0.230775
2.38169
0.631872
1.26014
0.601891
0.592595
1.25868
0.565464
0.514031
0.628835
0.518227
0.627569
0.466756
0.41
1.08486
0.411819
0.567695
0.355023
0.923744
0.292901
0.468638
0.355035
0.634659
0.410043
0.35503
0.603123
0.230774
0.518479
1.01351
1.00992
0.411846
0.636412
0.566637
0.466891
0.292903
0.772736
0.775961
0.514459
0.59508
0.620366
0.707909
0.712622
0.795739
0.643621
2.15985
0.659021
1.6915
2.481
1.68946
0.620908
2.14812
1.32714
2.47295
1.32689
0.646516
0
1.24038
0.66677
0.812254
1.23759
0
1.14794
1.14658
0
1.01369
1.01264
0
0.815541
0.816517
0
0.629909
0.629138
0.573797
0.634361
0.632261
0.707931
0.697899
2.75944
2.49061
2.54969
2.88225
2.76369
2.90038
2.55833
2.49382
2.98823
2.64659
2.73774
3.05208
3.05715
2.74117
2.65569
3.00322
2.2714
2.05067
2.0457
2.2376
2.23156
2.03602
2.04186
2.26415
1.83439
1.61681
1.67494
1.85615
1.84236
1.65735
1.60452
1.82346
2.469
2.43062
2.53296
2.58177
2.58537
2.53672
2.44053
2.4783
2.27741
2.04647
2.05566
2.30096
1.8134
1.56868
1.55486
1.81089
2.29027
2.04637
2.03699
2.26586
1.80785
1.80436
1.55208
1.56778
2.40824
2.40144
2.49488
2.50494
2.50868
2.4976
2.4099
2.41846
2.252
2.04084
2.04172
2.26188
1.81366
1.58747
1.57888
1.8142
2.24085
2.24971
2.03198
2.03151
1.80855
1.80922
1.5792
1.58746
1.29708
1.41699
1.40593
1.27479
1.41663
1.2996
1.27654
1.40505
1.24131
1.19822
1.35919
1.38584
1.24001
1.38598
1.35804
1.19697
1.47074
1.29358
1.21797
1.39657
1.25568
1.10671
1.0209
1.12066
1.12218
1.02297
1.11094
1.25837
1.41006
1.23286
1.31806
1.49225
1.07432
0.938256
1.00861
1.15423
0.909302
0.795644
0.850347
0.972725
1.13025
0.987443
0.925118
1.05972
0.967929
0.845785
0.793498
0.90704
0.85191
0.744107
0.708491
0.80106
0.735512
0.660574
0.627098
0.691565
0.812383
0.717313
0.757898
0.869845
0.693485
0.628647
0.663863
0.739591
0
0
0
0
0
0
0
0
0
0
0
0
0
0
0
0
0
0
0
0
0.681978
0.643889
0.643009
0.665763
0.641589
0.637064
0.631163
0.622404
0.607385
0.625576
0.625832
0.60767
0.623669
0.632268
0.639187
0.644194
0.672077
0.647415
0.650068
0.691578
0.630469
0.630027
0.630981
0.630983
0.611527
0.579771
0.583277
0.616499
0.616736
0.584822
0.585277
0.617575
0.619112
0.584613
0.581595
0.615047
0.539696
0.490464
0.49243
0.541883
0.543029
0.493452
0.493532
0.543238
0.542452
0.49263
0.490713
0.540444
0.438157
0.38274
0.383196
0.439524
0.440222
0.383427
0.383435
0.440248
0.439586
0.383214
0.382763
0.438235
0.323962
0.261837
0.261837
0.323963
0.323965
0.261838
0.261838
0.323967
0.323968
0.261839
0.261839
0.323969
0.0576964
0.057696
0.173083
0.173083
0.173083
0.057696
0.0576963
0.173084
0.0576981
0.173085
0.173084
0.057697
2.49615
2.40929
2.24837
2.49426
2.04169
1.81269
1.59134
1.5909
2.40233
1.80731
2.03285
2.23819
2.61317
2.49988
2.31388
2.60951
2.06076
1.80942
1.54765
1.54392
1.80239
2.49063
2.05149
2.30345
1.93273
1.50031
2.37276
1.51278
1.93754
2.37991
2.3267
1.94274
2.60461
2.74381
2.77261
2.48421
1.56934
2.22661
2.03365
1.84625
1.66558
1.32491
1.32136
2.5937
1.58847
2.33878
0.0576961
-4.07114e-07
0.173083
1.94929
2.84268
1.92813
2.50811
6.55645e-08
2.33137
1.48683
7.17256e-08
8.43048e-08
2.96654
1.47946
3.0717
1.48874
1.68365
1.86034
2.04335
1.22621e-07
1.15191
2.23244
2.94721
1.9205
0.173086
3.05171
2.48661
2.74515
1.41979
1.14649
1.50182
2.41046
2.85122
1.41954
3.0795
1.93502
2.32806
3.20796
0.261837
-2.58245e-07
3.24644
0.0576985
1.30117
2.61775
3.24006
3.18737
1.43968
0.230774
0.261839
1.32709
1.15638
1.43807
1.2405
0.0576959
1.92682
1.14108
1.2153
1.34474
0.995437
1.00154
2.40015
0.869365
1.34301
0.875177
0.0576966
0.230776
2.70188
0.323962
0.323969
2.69533
2.16104
1.13685
2.51367
1.72487
2.53882
2.63767
2.46443
0.870066
2.15321
2.53185
1.71312
2.03792
2.18074
2.45876
2.15092
0.230774
0.993902
2.24281
2.35183
1.92919
1.83565
1.68111
1.69813
0.631925
0.928255
0.633146
1.63876
2.13431
2.51934
0.173083
2.72927
1.47676
2.04724
2.17042
1.67659
2.14033
1.69568
1.7487
1.65472
2.88575
2.82142
2.24924
0.632995
1.8485
2.88978
0.628721
2.71723
2.52428
1.47848
0.617943
2.81354
2.8103
0.60783
0.628862
2.37548
1.93152
0.577803
0.584943
1.16225
1.92159
0.564372
0.62858
2.64072
0.566521
0.538587
2.14204
1.76448
0.489474
2.82549
0.542985
1.44435
1.46112
0.173084
0.882435
2.34037
0.230775
3.03397
1.30555
0.465843
0.493418
3.02382
0.43748
1.46139
0.467673
0.629106
2.56017
1.30274
0.567589
1.04683
0.382514
1.46322
1.92378
0.44021
0.629703
1.04195
0.383424
0.355023
0.355024
2.36463
0.468614
0.355035
1.18111
0.323964
1.3171
1.30281
0.567916
0.382537
0.261837
1.1776
0.796232
2.41292
0.632953
1.37871
2.25629
0.355028
0.635046
0.800626
1.01599
2.04093
0.468662
1.17677
2.49827
1.81405
2.5016
0.355034
0.230774
0.755115
1.58348
0.61961
0.626225
0.94793
0.585838
0.760309
1.17546
2.45831
0.355031
2.2885
0.543391
0.437558
2.05079
1.41157
0.493572
1.40198
1.81229
0.230774
0.636643
0.638258
0.857169
1.58373
1.41228
0.440259
2.55591
0.567465
0.383438
1.28742
2.55953
0.640284
1.12502
1.26643
1.56219
2.03133
0.46779
2.4034
1.80906
0.323967
0.63356
0.565672
0.465986
0.261839
1.56031
2.2445
1.10456
2.44882
2.04145
1.80624
1.35278
0.489719
1.00194
1.35159
0.539332
0.988054
0.907492
0.579616
0.902797
2.27748
0.611221
1.37289
0.115391
0.626739
0.0576961
1.37235
0.977977
0.975663
0.0576961
2.043
0.640813
2.26835
1.81414
1.05451
1.2777
2.42578
1.5739
0.964462
0.833191
0.747497
0.749564
1.57415
0.0576975
1.19061
1.27654
1.80912
0.115393
1.39754
2.51795
1.18855
2.03323
0.646296
2.25599
1.39847
0.609483
0.875754
2.41512
0.2929
2.51391
1.26237
0.675229
0
0.747613
0.292904
0.634761
0
0.679412
1.26096
1.26115
0.261837
0.648853
0.681693
1.07713
1.22081
0.610051
0.644941
0.173083
0.630753
1.25792
0
0.982673
1.21843
0
1.17481
0.11539
0.11539
0.614431
1.17318
1.12142
0
1.12023
0.599946
0.595396
0.625438
0
0.848718
1.05329
0.601459
0.691465
0.65211
0.761893
1.06798
1.05223
1.06485
2.16545
0.581583
0.630153
0.976073
0.975027
0
2.49687
0.629156
0
0.873596
0.942031
1.68887
0.54079
0.515081
0.261839
0.874596
0.616563
0.115391
0.764667
0.938506
0.765615
2.48943
2.1564
0.517173
0.115392
0
1.6859
0.518271
0.173085
0
0.667933
2.1544
2.4739
0.491445
1.6939
0.609935
0.667085
0.584926
0.823896
0.438839
0.636402
0.577257
0.609252
0.820547
2.46642
0.410454
0.576976
0.618522
1.69184
0.543113
0.631504
0.714388
2.14487
0.411363
0.617177
0.411826
0.382968
0.717383
0.719343
0.49349
0.647646
0.64479
0.747859
1.33687
0.690631
0.707768
1.31157
1.33636
0.602083
0.323963
0.688184
0.680788
0.791362
0.60182
0.440235
0.757995
0.2929
0.650591
0.694335
1.31099
0.382989
0.292901
1.28965
0.518401
0.383431
0.410496
1.28751
0.517512
0.323968
0.617691
0.628085
0.583244
0.323966
0.619104
1.2198
0.261838
0.653635
0.541477
0.411839
0.639715
1.21856
0.491678
0.411397
0.661221
0.173083
0.597936
0.438912
0.515512
1.07094
1.06914
0
0.292902
0.619374
0
0.807306
0.292903
0.62927
0
0
0
0.848725
0.642075
0
0.846515
0.658932
0
0
0
0.668996
0
0
0
0.651533
0
0.653278
0
0
0.644543
0
0.64696
0.731128
0
0.743103
0
0
0
0.606032
0.632958
0.634902
0.676737
0.685178
2.78511
2.69181
2.72029
2.84021
2.5599
2.40568
2.41862
2.57808
2.6128
2.44494
2.48393
2.65672
2.92298
2.77095
2.82833
3.00677
2.78877
2.85143
2.72699
2.69429
2.94249
3.03014
2.8442
2.78338
2.62128
2.66808
2.49314
2.4517
2.56242
2.58295
2.42339
2.40931
3.06684
2.87792
2.9183
3.10443
2.70415
2.5378
2.5971
2.75074
2.79241
2.64942
2.69221
2.82745
3.13359
2.95314
2.98082
3.15313
3.15598
2.98309
2.9599
3.14233
2.82932
2.69396
2.65453
2.79786
2.75938
2.60502
2.54765
2.71535
3.11919
2.92931
2.89269
3.0875
2.34829
2.23338
2.2075
2.31225
2.115
1.99745
1.99685
2.10182
2.09576
1.99723
1.99701
2.09235
2.29162
2.19423
2.18757
2.28162
2.2764
2.18076
2.18725
2.28592
2.08366
1.98624
1.98676
2.08715
2.0934
1.98702
1.98833
2.10607
2.30562
2.20018
2.22456
2.33956
1.88119
1.76192
1.78964
1.89324
1.64226
1.52713
1.58668
1.6868
1.71127
1.62012
1.63646
1.72353
1.90031
1.80503
1.813
1.9039
1.89102
1.79805
1.7908
1.88794
1.70663
1.61786
1.60268
1.69532
1.67318
1.57223
1.51924
1.63386
1.88201
1.77713
1.75307
1.87204
2.44465
2.42466
2.48983
2.51202
2.40612
2.38959
2.45203
2.46961
2.52207
2.50243
2.53595
2.55912
2.57009
2.54489
2.58574
2.61504
2.61685
2.58753
2.55022
2.57541
2.56094
2.53786
2.50826
2.52755
2.47811
2.46107
2.40032
2.41632
2.52017
2.49806
2.43457
2.45447
2.32086
2.21793
2.22616
2.33366
2.1036
1.98718
1.99
2.10876
2.1149
1.99322
1.99671
2.12168
2.34828
2.23587
2.24655
2.36413
1.87281
1.75209
1.75006
1.8731
1.63057
1.51804
1.51029
1.6261
1.6207
1.50148
1.49202
1.61472
1.8733
1.74748
1.7445
1.87338
2.35369
2.23613
2.22519
2.33765
2.11191
1.98791
1.98455
2.105
2.09864
1.9814
1.97858
2.0931
2.32269
2.21508
2.20624
2.30931
1.86629
1.86625
1.74548
1.74819
1.86609
1.86581
1.73867
1.74226
1.61747
1.61069
1.48941
1.49974
1.62917
1.62373
1.50949
1.51831
2.37795
2.37089
2.43498
2.44078
2.36624
2.36455
2.43024
2.43136
2.47841
2.47658
2.50097
2.50399
2.48976
2.4829
2.51054
2.52009
2.522
2.51227
2.48822
2.49561
2.50547
2.5021
2.48021
2.48301
2.43894
2.43656
2.37353
2.37623
2.44991
2.44347
2.3815
2.38894
2.29385
2.20007
2.20311
2.29811
2.09561
1.98464
1.98423
2.09657
2.09814
1.98453
1.98538
2.10022
2.30394
2.20704
2.21181
2.31118
1.87065
1.75611
1.75543
1.87148
1.64422
1.53874
1.53468
1.64133
1.63805
1.5299
1.52441
1.63437
1.87205
1.75454
1.75349
1.87247
2.28336
2.28687
2.19194
2.18966
2.29226
2.2993
2.19984
2.19537
2.08762
2.08952
1.97675
1.97593
2.08598
2.0864
1.97571
1.97629
1.8642
1.86511
1.75174
1.75215
1.86571
1.86613
1.74997
1.75099
1.63714
1.63351
1.52537
1.53098
1.64276
1.64023
1.53573
1.53953
1.28157
1.32711
1.32013
1.26995
1.38627
1.45424
1.45084
1.38141
1.37482
1.4456
1.43897
1.36691
1.25476
1.31076
1.29973
1.23867
1.45335
1.38697
1.38164
1.44962
1.32916
1.28462
1.27264
1.32179
1.31206
1.25703
1.24057
1.30071
1.44429
1.37475
1.36663
1.43772
1.22022
1.19608
1.26696
1.28566
1.17194
1.14802
1.22828
1.24772
1.32621
1.31054
1.39324
1.40594
1.35556
1.34133
1.41799
1.42902
1.21863
1.28477
1.26595
1.19469
1.35563
1.42972
1.41779
1.34088
1.32528
1.40495
1.39151
1.30917
1.17068
1.24658
1.22699
1.14681
1.52465
1.42902
1.41137
1.50734
1.34017
1.25814
1.24105
1.32262
1.28478
1.20363
1.14467
1.22442
1.47158
1.3739
1.31284
1.41142
1.33604
1.2457
1.18645
1.26126
1.1648
1.09164
1.05589
1.11832
1.06978
1.01789
0.977783
1.01945
1.18573
1.12562
1.06368
1.11063
1.11187
1.06504
1.12762
1.18732
1.02094
0.979397
1.02067
1.07218
1.12169
1.05985
1.0968
1.1692
1.26324
1.18917
1.24924
1.33863
1.41954
1.32189
1.39061
1.48707
1.23426
1.15516
1.2218
1.30237
1.34483
1.26408
1.28376
1.3647
1.52649
1.43231
1.45191
1.54532
1.07782
1.00323
1.06275
1.14148
0.937616
0.880164
0.931886
0.993149
1.02951
0.965828
0.981982
1.04673
1.18245
1.10149
1.11969
1.20153
0.92546
0.862277
0.894766
0.960621
0.806645
0.758159
0.786365
0.836848
0.865198
0.81279
0.837448
0.891694
0.993681
0.925296
0.953846
1.0246
1.17617
1.09575
1.07988
1.15968
1.02431
0.96115
0.946812
1.00917
0.976995
0.9167
0.870912
0.927886
1.12351
1.04566
0.993058
1.06724
1.01912
0.948467
0.921183
0.989484
0.886445
0.832369
0.80891
0.861187
0.834061
0.783669
0.75664
0.805075
0.957697
0.891906
0.860665
0.92381
0.89291
0.824073
0.812968
0.879935
0.769735
0.72747
0.720214
0.760509
0.740735
0.704559
0.680138
0.709968
0.852691
0.78939
0.753089
0.811137
0.77605
0.722185
0.703066
0.75458
0.683494
0.658956
0.645415
0.666893
0.648764
0.630239
0.61292
0.629142
0.731425
0.682311
0.659806
0.706549
0.819783
0.760952
0.802098
0.866759
0.71695
0.686162
0.714118
0.751928
0.774396
0.732059
0.740381
0.784872
0.897481
0.828779
0.841323
0.912067
0.707987
0.661127
0.684656
0.733977
0.630329
0.613962
0.632092
0.650872
0.669925
0.648079
0.662439
0.687459
0.758254
0.70644
0.7266
0.780859
0
0
0
0
0
0
0
0
0
0
0
0
0
0
0
0
0
0
0
0
0
0
0
0
0
0
0
0
0
0
0
0
0
0
0
0
0
0
0
0
0
0
0
0
0
0
0
0
0
0
0
0
0
0
0
0
0
0
0
0
0
0
0
0
0
0
0
0
0
0
0
0
0
0
0
0
0
0
0
0
0.695468
0.670997
0.669885
0.691122
0.651115
0.634232
0.637369
0.652412
0.650301
0.638223
0.636613
0.644663
0.680337
0.663942
0.653027
0.662931
0.64779
0.643451
0.637266
0.637983
0.639674
0.635166
0.634574
0.636566
0.632196
0.632802
0.629693
0.626471
0.626323
0.629602
0.620159
0.611232
0.59689
0.613804
0.612533
0.591671
0.622694
0.627425
0.627121
0.622116
0.622247
0.627245
0.627798
0.623089
0.591813
0.612671
0.614219
0.59732
0.612173
0.621049
0.631148
0.627986
0.627308
0.630478
0.63412
0.633627
0.638545
0.636364
0.637367
0.642154
0.640358
0.639441
0.646226
0.65087
0.66809
0.657473
0.670696
0.688384
0.648455
0.639827
0.642787
0.655881
0.659053
0.642673
0.639642
0.658046
0.701034
0.678079
0.679724
0.706202
0.630084
0.631534
0.630366
0.629563
0.631728
0.630916
0.628775
0.629996
0.630422
0.629295
0.632469
0.633003
0.629753
0.630682
0.632482
0.630653
0.61802
0.60184
0.604801
0.621636
0.586394
0.57129
0.572799
0.588649
0.590662
0.574212
0.575581
0.592514
0.623955
0.607182
0.609075
0.624916
0.623877
0.609503
0.60906
0.622425
0.593274
0.576232
0.576253
0.593171
0.593441
0.576449
0.576811
0.594075
0.622914
0.609425
0.610593
0.62534
0.627455
0.610922
0.609703
0.627469
0.593849
0.576536
0.575491
0.592464
0.590739
0.574289
0.572853
0.58856
0.625675
0.607715
0.604825
0.622107
0.551465
0.526849
0.527923
0.55258
0.502263
0.477677
0.478626
0.503278
0.504293
0.479576
0.480528
0.505312
0.553665
0.528993
0.530066
0.554745
0.555298
0.530627
0.530685
0.555357
0.505842
0.481019
0.481048
0.505885
0.505938
0.48108
0.481112
0.505996
0.555491
0.53077
0.530877
0.555694
0.555384
0.530458
0.529491
0.554507
0.505548
0.480669
0.479748
0.504586
0.503607
0.478817
0.477872
0.502601
0.553555
0.528489
0.527437
0.552489
0.451602
0.424023
0.424589
0.452399
0.396427
0.368825
0.368938
0.396767
0.397109
0.369053
0.369167
0.397451
0.453198
0.425158
0.425729
0.453999
0.454409
0.426019
0.426029
0.454427
0.397624
0.369226
0.369229
0.397629
0.397634
0.369232
0.369234
0.397639
0.454446
0.426039
0.426048
0.454463
0.45408
0.425772
0.42521
0.453295
0.397473
0.36918
0.369068
0.397137
0.396799
0.368956
0.368842
0.39646
0.452506
0.424647
0.424083
0.451713
0.339492
0.308431
0.308431
0.339493
0.277369
0.246305
0.246305
0.277369
0.277369
0.246305
0.246306
0.277369
0.339493
0.308432
0.308432
0.339494
0.339495
0.308433
0.308433
0.339497
0.277369
0.246306
0.246306
0.27737
0.27737
0.246306
0.246307
0.277371
0.339498
0.308434
0.308435
0.3395
0.339501
0.308435
0.308436
0.339501
0.277371
0.246307
0.246307
0.277371
0.277371
0.246307
0.246308
0.277371
0.339502
0.308436
0.308436
0.339502
0.0288486
0.028848
0.0865434
0.0865435
0.028848
0.028848
0.0865432
0.0865432
0.144237
0.144237
0.201928
0.201928
0.144237
0.144237
0.201928
0.201929
0.201928
0.144237
0.144237
0.201929
0.0865432
0.028848
0.028848
0.0865433
0.0865435
0.0288481
0.0288483
0.0865438
0.201929
0.144237
0.144237
0.201929
0.0288498
0.0865457
0.0865451
0.0288489
0.144239
0.201931
0.20193
0.144239
0.144238
0.20193
0.20193
0.144238
0.0288487
0.0865446
0.0865442
0.0288485
2.50141
2.37287
2.50048
2.29223
1.98496
1.87025
1.5405
1.54111
2.36452
1.86373
1.97674
2.28222
2.63176
2.46482
2.62994
2.37192
1.99847
1.87346
1.48784
1.48471
1.8657
1.98961
2.45505
1.46358
2.36156
1.93056
1.47121
2.40451
2.39585
2.51731
1.93981
2.71113
1.93769
2.32392
2.33746
2.77013
2.40279
1.37652
2.27386
2.50725
1.37347
1.5742
1.92808
1.98568
1.89209
2.50675
1.62231
1.48831
2.81801
0.0288491
1.49007
7.202e-07
1.59359
0.201929
1.94951
8.58714e-08
1.92044
1.52919
7.78706e-08
1.45473
9.95033e-08
2.32841
1.45538
2.42023
1.64117
3.06988
1.29883e-07
1.90508
3.16036
1.99648
2.32719
1.93592
2.27894
0.201931
2.63419
1.11504
2.40614
3.04625
1.55021
2.77132
3.09888
1.4338
0.246305
2.82273
1.10923
3.12682
1.43177
3.19081
1.92759
0.230774
1.38641
3.2479
1.07971e-06
0.246308
0.0288505
3.24472
2.40992
1.38433
0.028848
3.16655
1.26164
1.11754
1.28803
1.24481
0.0288484
1.10675
0.230776
1.03364
1.03979
1.21877
0.843836
2.47949
0.849539
2.43601
2.19876
2.09533
2.47642
1.17944
1.75636
1.64558
2.43041
1.6439
1.75222
0.844256
0.339501
2.08604
0.339492
2.18882
2.58819
2.5315
2.25166
2.12493
2.58288
1.74325
1.6122
0.964222
1.60769
1.73708
2.52338
0.630606
2.11525
2.24138
0.632613
0.931422
0.230774
1.9343
1.52269
2.35795
1.9367
2.33493
1.53749
2.68568
2.36434
0.201928
1.55718
2.55599
1.94487
2.35648
1.9296
0.632577
2.6922
2.78023
2.17864
2.08216
2.77306
1.80053
2.59214
2.84315
0.626362
1.7102
2.15472
0.625054
2.65405
0.629042
1.57529
1.20558
1.73777
0.615917
1.47344
1.27926
2.52767
2.14695
1.94814
0.570507
0.0865435
1.27522
2.08932
2.67988
0.576264
0.630323
2.52064
1.72465
-8.55976e-08
0.144237
0.563789
2.34008
2.46632
2.17668
2.19176
0.550897
0.567055
5.93906e-08
2.87318
2.89366
0.853263
1.78588
2.46013
0.477201
2.9927
1.47501
7.39997e-08
0.555287
2.59875
8.03501e-08
2.53063
2.15214
2.70371
2.34149
1.93076
2.36826
2.13743
1.68319
1.68743
2.09783
1.19278
1.0623
1.43318
1.72733
1.92834
0.465386
1.81567
1.69714
1.922
2.85664
2.8683
2.09083
0.481005
2.51123
0.451205
2.84003
1.05677
1.74249
1.70267
2.18536
1.48466
0.201929
2.19883
2.16621
1.39114e-07
0.468132
2.69391
2.99808
0.567589
2.87422
1.67904
0.230775
1.1878
1.79956
1.46565
2.7421
0.629407
2.55796
0.14424
2.68711
2.83057
2.14126
0.368768
1.48656
1.69481
0.454401
2.34498
1.45659
2.90805
0.355022
0.369225
0.632001
1.28866
0.468603
0.807095
3.02208
1.46649
0.355025
0.355035
2.65934
2.63217
4.35811e-08
1.34404
3.22027
1.92071
0.339495
2.54849
2.46366
0.368786
0.0865461
2.75184
3.23951
2.17465
2.14515
0.81208
2.62547
1.28551
2.55104
1.75763
1.92309
1.7015
0.246306
0.568072
3.22964
0.277369
2.40135
3.20329
1.38912
2.42857
2.15005
0.631364
2.45867
0.786524
1.36922
2.94631
0.355027
2.35708
2.54406
2.18516
1.93412
2.16577
1.69286
2.93733
2.63259
0.63468
1.38815
0.627736
1.1833
1.98687
2.33051
0.791923
1.22533
1.699
0.277371
0.468673
0.230774
1.67879
0.230774
2.29298
0.985458
1.16491
1.20199
1.39795
1.88577
2.60261
0.355034
0.627003
1.44522
0.961826
0.577032
0.0865432
0.967868
0.6352
0.898807
1.59183
2.13987
1.69633
0.895755
0.308431
0.904703
2.13248
1.44406
0.555811
0.951462
2.17493
1.67391
0.355032
1.13607
0.308436
2.4342
1.92605
0.481128
0.451315
0.63552
2.75471
1.9971
0.632147
2.67331
2.67683
1.75178
0.230775
1.41745
2.57777
1.60836
2.46138
1.3024
2.39094
2.56864
2.29214
2.34802
0.454471
0.567847
2.4087
1.92887
1.13487
0.086544
2.75114
2.89973
2.8006
2.29902
2.05544
1.09897
1.89776
0.369236
0.230775
2.46926
2.44067
2.48731
1.15393
1.30081
1.32727
2.58144
2.90174
0.230774